#!/bin/bash

#################################################
# Set Shell Variables                           #
#################################################
    SETUPFILES="/mnt/github/jnmitch/centos/setup-files"
    LOCALFILES="/mnt/github/jnmitch/centos/local-files"

#################################################
# Local Shared Folders                          #
#################################################
# Auto-mount local shared folders on startup
    cat $LOCALFILES/settings-mount_local_folders >> /etc/fstab

#################################################
# Time                                          #
#################################################
# Time synchronization
    yum install -y ntp
    systemctl start ntpd
    systemctl enable ntpd

#################################################
# Network                                       #
#################################################
    chmod +x $SETUPFILES/setup-network
    bash $SETUPFILES/setup-network

#################################################
# Firewall                                      #
#################################################
    chmod +x $SETUPFILES/setup-firewall
    bash $SETUPFILES/setup-firewall

#################################################
# Webmin                                        #
#################################################
    chmod +x $SETUPFILES/setup-webmin
    bash $SETUPFILES/setup-webmin

#################################################
# MariaDB (MySQL)                               #
#################################################
    chmod +x $SETUPFILES/setup-mysql
    bash $SETUPFILES/setup-mysql

#################################################
# Apache                                        #
#################################################
    chmod +x $SETUPFILES/setup-apache
    bash $SETUPFILES/setup-apache

#################################################
# PHP 5.4.16 (for Phabricator)                  #
#################################################

    yum install -y php php-cli php-common php-gd php-mbstring php-mysql php-apc php-process

# #################################################
# # Phabricator                                   #
# #################################################
#     chmod +x $SETUPFILES/setup-phabricator
#     bash $SETUPFILES/setup-phabricator
#
